Gold Nanoparticle - Thiol System

        1785   atoms
        1088   bonds
        952   angles
        816   dihedrals

        4   atom types
        3   bond types
        3   angle types
        3   dihedral types

  0.00  100        xlo xhi
  0.00  100        ylo yhi
  0.00  100        zlo zhi

Masses

 1 196.967
 2 32.065
 3 14.0026
 4 15.0345

Atoms

   1     1   1   50  50  50
   2     1   1   51.516  50  52.453
   3     1   1   48.484  50  52.453
   4     1   1   50  47.547  51.516
   5     1   1   52.453  48.484  50
   6     1   1   52.453  51.516  50
   7     1   1   50  52.453  51.516
   8     1   1   48.484  50  47.547
   9     1   1   51.516  50  47.547
   10     1   1   50  52.453  48.484
   11     1   1   47.547  51.516  50
   12     1   1   47.547  48.484  50
   13     1   1   50  47.547  48.484
   14     1   1   53.032  50  54.906
   15     1   1   46.968  50  54.906
   16     1   1   50  45.094  53.032
   17     1   1   54.906  46.968  50
   18     1   1   54.906  53.032  50
   19     1   1   50  54.906  53.032
   20     1   1   46.968  50  45.094
   21     1   1   53.032  50  45.094
   22     1   1   50  54.906  46.968
   23     1   1   45.094  53.032  50
   24     1   1   45.094  46.968  50
   25     1   1   50  45.094  46.968
   26     1   1   50  50  54.906
   27     1   1   51.516  47.547  53.969
   28     1   1   53.969  48.484  52.453
   29     1   1   53.969  51.516  52.453
   30     1   1   51.516  52.453  53.969
   31     1   1   52.453  53.969  51.516
   32     1   1   50  54.906  50
   33     1   1   47.547  53.969  51.516
   34     1   1   48.484  52.453  53.969
   35     1   1   54.906  50  50
   36     1   1   53.969  51.516  47.547
   37     1   1   52.453  53.969  48.484
   38     1   1   53.969  48.484  47.547
   39     1   1   51.516  52.453  46.031
   40     1   1   47.547  53.969  48.484
   41     1   1   50  50  45.094
   42     1   1   48.484  52.453  46.031
   43     1   1   46.031  51.516  47.547
   44     1   1   46.031  48.484  47.547
   45     1   1   48.484  47.547  46.031
   46     1   1   47.547  46.031  48.484
   47     1   1   50  45.094  50
   48     1   1   52.453  46.031  48.484
   49     1   1   51.516  47.547  46.031
   50     1   1   45.094  50  50
   51     1   1   46.031  48.484  52.453
   52     1   1   47.547  46.031  51.516
   53     1   1   46.031  51.516  52.453
   54     1   1   48.484  47.547  53.969
   55     1   1   52.453  46.031  51.516
   56     1   1   54.548  50  57.359
   57     1   1   45.452  50  57.359
   58     1   1   50  42.641  54.548
   59     1   1   57.359  45.452  50
   60     1   1   57.359  54.548  50
   61     1   1   50  57.359  54.548
   62     1   1   45.452  50  42.641
   63     1   1   54.548  50  42.641
   64     1   1   50  57.359  45.452
   65     1   1   42.641  54.548  50
   66     1   1   42.641  45.452  50
   67     1   1   50  42.641  45.452
   68     1   1   51.516  50  57.359
   69     1   1   48.484  50  57.359
   70     1   1   53.032  47.547  56.422
   71     1   1   51.516  45.094  55.485
   72     1   1   55.485  48.484  54.906
   73     1   1   56.422  46.968  52.453
   74     1   1   55.485  51.516  54.906
   75     1   1   56.422  53.032  52.453
   76     1   1   53.032  52.453  56.422
   77     1   1   51.516  54.906  55.485
   78     1   1   52.453  56.422  53.032
   79     1   1   54.906  55.485  51.516
   80     1   1   50  57.359  51.516
   81     1   1   50  57.359  48.484
   82     1   1   47.547  56.422  53.032
   83     1   1   45.094  55.485  51.516
   84     1   1   48.484  54.906  55.485
   85     1   1   46.968  52.453  56.422
   86     1   1   57.359  51.516  50
   87     1   1   57.359  48.484  50
   88     1   1   56.422  53.032  47.547
   89     1   1   55.485  51.516  45.094
   90     1   1   54.906  55.485  48.484
   91     1   1   52.453  56.422  46.968
   92     1   1   56.422  46.968  47.547
   93     1   1   55.485  48.484  45.094
   94     1   1   53.032  52.453  43.578
   95     1   1   51.516  54.906  44.515
   96     1   1   47.547  56.422  46.968
   97     1   1   45.094  55.485  48.484
   98     1   1   48.484  50  42.641
   99     1   1   51.516  50  42.641
   100     1   1   46.968  52.453  43.578
   101     1   1   48.484  54.906  44.515
   102     1   1   44.515  51.516  45.094
   103     1   1   43.578  53.032  47.547
   104     1   1   44.515  48.484  45.094
   105     1   1   43.578  46.968  47.547
   106     1   1   46.968  47.547  43.578
   107     1   1   48.484  45.094  44.515
   108     1   1   47.547  43.578  46.968
   109     1   1   45.094  44.515  48.484
   110     1   1   50  42.641  48.484
   111     1   1   50  42.641  51.516
   112     1   1   52.453  43.578  46.968
   113     1   1   54.906  44.515  48.484
   114     1   1   51.516  45.094  44.515
   115     1   1   53.032  47.547  43.578
   116     1   1   42.641  48.484  50
   117     1   1   42.641  51.516  50
   118     1   1   43.578  46.968  52.453
   119     1   1   44.515  48.484  54.906
   120     1   1   45.094  44.515  51.516
   121     1   1   47.547  43.578  53.032
   122     1   1   43.578  53.032  52.453
   123     1   1   44.515  51.516  54.906
   124     1   1   46.968  47.547  56.422
   125     1   1   48.484  45.094  55.485
   126     1   1   52.453  43.578  53.032
   127     1   1   54.906  44.515  51.516
   128     1   1   50  47.547  56.422
   129     1   1   53.969  46.031  53.969
   130     1   1   56.422  50  52.453
   131     1   1   53.969  53.969  53.969
   132     1   1   50  52.453  56.422
   133     1   1   52.453  56.422  50
   134     1   1   47.547  56.422  50
   135     1   1   46.031  53.969  53.969
   136     1   1   56.422  50  47.547
   137     1   1   53.969  53.969  46.031
   138     1   1   50  52.453  43.578
   139     1   1   46.031  53.969  46.031
   140     1   1   43.578  50  47.547
   141     1   1   46.031  46.031  46.031
   142     1   1   50  47.547  43.578
   143     1   1   47.547  43.578  50
   144     1   1   52.453  43.578  50
   145     1   1   53.969  46.031  46.031
   146     1   1   43.578  50  52.453
   147     1   1   46.031  46.031  53.969
   148     1   1   56.064  50  59.812
   149     1   1   43.936  50  59.812
   150     1   1   50  40.188  56.064
   151     1   1   59.812  43.936  50
   152     1   1   59.812  56.064  50
   153     1   1   50  59.812  56.064
   154     1   1   43.936  50  40.188
   155     1   1   56.064  50  40.188
   156     1   1   50  59.812  43.936
   157     1   1   40.188  56.064  50
   158     1   1   40.188  43.936  50
   159     1   1   50  40.188  43.936
   160     1   1   53.032  50  59.812
   161     1   1   50  50  59.812
   162     1   1   46.968  50  59.812
   163     1   1   54.548  47.547  58.875
   164     1   1   53.032  45.094  57.938
   165     1   1   51.516  42.641  57.001
   166     1   1   57.001  48.484  57.359
   167     1   1   57.938  46.968  54.906
   168     1   1   58.875  45.452  52.453
   169     1   1   57.001  51.516  57.359
   170     1   1   57.938  53.032  54.906
   171     1   1   58.875  54.548  52.453
   172     1   1   54.548  52.453  58.875
   173     1   1   53.032  54.906  57.938
   174     1   1   51.516  57.359  57.001
   175     1   1   52.453  58.875  54.548
   176     1   1   54.906  57.938  53.032
   177     1   1   57.359  57.001  51.516
   178     1   1   50  59.812  53.032
   179     1   1   50  59.812  50
   180     1   1   50  59.812  46.968
   181     1   1   47.547  58.875  54.548
   182     1   1   45.094  57.938  53.032
   183     1   1   42.641  57.001  51.516
   184     1   1   48.484  57.359  57.001
   185     1   1   46.968  54.906  57.938
   186     1   1   45.452  52.453  58.875
   187     1   1   59.812  53.032  50
   188     1   1   59.812  50  50
   189     1   1   59.812  46.968  50
   190     1   1   58.875  54.548  47.547
   191     1   1   57.938  53.032  45.094
   192     1   1   57.001  51.516  42.641
   193     1   1   57.359  57.001  48.484
   194     1   1   54.906  57.938  46.968
   195     1   1   52.453  58.875  45.452
   196     1   1   58.875  45.452  47.547
   197     1   1   57.938  46.968  45.094
   198     1   1   57.001  48.484  42.641
   199     1   1   54.548  52.453  41.125
   200     1   1   53.032  54.906  42.062
   201     1   1   51.516  57.359  42.999
   202     1   1   47.547  58.875  45.452
   203     1   1   45.094  57.938  46.968
   204     1   1   42.641  57.001  48.484
   205     1   1   46.968  50  40.188
   206     1   1   50  50  40.188
   207     1   1   53.032  50  40.188
   208     1   1   45.452  52.453  41.125
   209     1   1   46.968  54.906  42.062
   210     1   1   48.484  57.359  42.999
   211     1   1   42.999  51.516  42.641
   212     1   1   42.062  53.032  45.094
   213     1   1   41.125  54.548  47.547
   214     1   1   42.999  48.484  42.641
   215     1   1   42.062  46.968  45.094
   216     1   1   41.125  45.452  47.547
   217     1   1   45.452  47.547  41.125
   218     1   1   46.968  45.094  42.062
   219     1   1   48.484  42.641  42.999
   220     1   1   47.547  41.125  45.452
   221     1   1   45.094  42.062  46.968
   222     1   1   42.641  42.999  48.484
   223     1   1   50  40.188  46.968
   224     1   1   50  40.188  50
   225     1   1   50  40.188  53.032
   226     1   1   52.453  41.125  45.452
   227     1   1   54.906  42.062  46.968
   228     1   1   57.359  42.999  48.484
   229     1   1   51.516  42.641  42.999
   230     1   1   53.032  45.094  42.062
   231     1   1   54.548  47.547  41.125
   232     1   1   40.188  46.968  50
   233     1   1   40.188  50  50
   234     1   1   40.188  53.032  50
   235     1   1   41.125  45.452  52.453
   236     1   1   42.062  46.968  54.906
   237     1   1   42.999  48.484  57.359
   238     1   1   42.641  42.999  51.516
   239     1   1   45.094  42.062  53.032
   240     1   1   47.547  41.125  54.548
   241     1   1   41.125  54.548  52.453
   242     1   1   42.062  53.032  54.906
   243     1   1   42.999  51.516  57.359
   244     1   1   45.452  47.547  58.875
   245     1   1   46.968  45.094  57.938
   246     1   1   48.484  42.641  57.001
   247     1   1   52.453  41.125  54.548
   248     1   1   54.906  42.062  53.032
   249     1   1   57.359  42.999  51.516
   250     1   1   51.516  47.547  58.875
   251     1   1   50  45.094  57.938
   252     1   1   48.484  47.547  58.875
   253     1   1   55.485  46.031  56.422
   254     1   1   56.422  44.515  53.969
   255     1   1   53.969  43.578  55.485
   256     1   1   57.938  50  54.906
   257     1   1   58.875  51.516  52.453
   258     1   1   58.875  48.484  52.453
   259     1   1   55.485  53.969  56.422
   260     1   1   53.969  56.422  55.485
   261     1   1   56.422  55.485  53.969
   262     1   1   51.516  52.453  58.875
   263     1   1   48.484  52.453  58.875
   264     1   1   50  54.906  57.938
   265     1   1   52.453  58.875  51.516
   266     1   1   52.453  58.875  48.484
   267     1   1   54.906  57.938  50
   268     1   1   47.547  58.875  51.516
   269     1   1   45.094  57.938  50
   270     1   1   47.547  58.875  48.484
   271     1   1   46.031  56.422  55.485
   272     1   1   44.515  53.969  56.422
   273     1   1   43.578  55.485  53.969
   274     1   1   58.875  51.516  47.547
   275     1   1   57.938  50  45.094
   276     1   1   58.875  48.484  47.547
   277     1   1   56.422  55.485  46.031
   278     1   1   53.969  56.422  44.515
   279     1   1   55.485  53.969  43.578
   280     1   1   48.484  52.453  41.125
   281     1   1   50  54.906  42.062
   282     1   1   51.516  52.453  41.125
   283     1   1   44.515  53.969  43.578
   284     1   1   43.578  55.485  46.031
   285     1   1   46.031  56.422  44.515
   286     1   1   42.062  50  45.094
   287     1   1   41.125  48.484  47.547
   288     1   1   41.125  51.516  47.547
   289     1   1   44.515  46.031  43.578
   290     1   1   46.031  43.578  44.515
   291     1   1   43.578  44.515  46.031
   292     1   1   48.484  47.547  41.125
   293     1   1   51.516  47.547  41.125
   294     1   1   50  45.094  42.062
   295     1   1   47.547  41.125  48.484
   296     1   1   47.547  41.125  51.516
   297     1   1   45.094  42.062  50
   298     1   1   52.453  41.125  48.484
   299     1   1   54.906  42.062  50
   300     1   1   52.453  41.125  51.516
   301     1   1   53.969  43.578  44.515
   302     1   1   55.485  46.031  43.578
   303     1   1   56.422  44.515  46.031
   304     1   1   41.125  48.484  52.453
   305     1   1   42.062  50  54.906
   306     1   1   41.125  51.516  52.453
   307     1   1   43.578  44.515  53.969
   308     1   1   46.031  43.578  55.485
   309     1   1   44.515  46.031  56.422
   310     1   1   57.58  50  62.265
   311     1   1   42.42  50  62.265
   312     1   1   50  37.735  57.58
   313     1   1   62.265  42.42  50
   314     1   1   62.265  57.58  50
   315     1   1   50  62.265  57.58
   316     1   1   42.42  50  37.735
   317     1   1   57.58  50  37.735
   318     1   1   50  62.265  42.42
   319     1   1   37.735  57.58  50
   320     1   1   37.735  42.42  50
   321     1   1   50  37.735  42.42
   322     1   1   54.548  50  62.265
   323     1   1   51.516  50  62.265
   324     1   1   48.484  50  62.265
   325     1   1   45.452  50  62.265
   326     1   1   56.064  47.547  61.328
   327     1   1   54.548  45.094  60.391
   328     1   1   53.032  42.641  59.454
   329     1   1   51.516  40.188  58.517
   330     1   1   58.517  48.484  59.812
   331     1   1   59.454  46.968  57.359
   332     1   1   60.391  45.452  54.906
   333     1   1   61.328  43.936  52.453
   334     1   1   58.517  51.516  59.812
   335     1   1   59.454  53.032  57.359
   336     1   1   60.391  54.548  54.906
   337     1   1   61.328  56.064  52.453
   338     1   1   56.064  52.453  61.328
   339     1   1   54.548  54.906  60.391
   340     1   1   53.032  57.359  59.454
   341     1   1   51.516  59.812  58.517
   342     1   1   52.453  61.328  56.064
   343     1   1   54.906  60.391  54.548
   344     1   1   57.359  59.454  53.032
   345     1   1   59.812  58.517  51.516
   346     1   1   50  62.265  54.548
   347     1   1   50  62.265  51.516
   348     1   1   50  62.265  48.484
   349     1   1   50  62.265  45.452
   350     1   1   47.547  61.328  56.064
   351     1   1   45.094  60.391  54.548
   352     1   1   42.641  59.454  53.032
   353     1   1   40.188  58.517  51.516
   354     1   1   48.484  59.812  58.517
   355     1   1   46.968  57.359  59.454
   356     1   1   45.452  54.906  60.391
   357     1   1   43.936  52.453  61.328
   358     1   1   62.265  54.548  50
   359     1   1   62.265  51.516  50
   360     1   1   62.265  48.484  50
   361     1   1   62.265  45.452  50
   362     1   1   61.328  56.064  47.547
   363     1   1   60.391  54.548  45.094
   364     1   1   59.454  53.032  42.641
   365     1   1   58.517  51.516  40.188
   366     1   1   59.812  58.517  48.484
   367     1   1   57.359  59.454  46.968
   368     1   1   54.906  60.391  45.452
   369     1   1   52.453  61.328  43.936
   370     1   1   61.328  43.936  47.547
   371     1   1   60.391  45.452  45.094
   372     1   1   59.454  46.968  42.641
   373     1   1   58.517  48.484  40.188
   374     1   1   56.064  52.453  38.672
   375     1   1   54.548  54.906  39.609
   376     1   1   53.032  57.359  40.546
   377     1   1   51.516  59.812  41.483
   378     1   1   47.547  61.328  43.936
   379     1   1   45.094  60.391  45.452
   380     1   1   42.641  59.454  46.968
   381     1   1   40.188  58.517  48.484
   382     1   1   45.452  50  37.735
   383     1   1   48.484  50  37.735
   384     1   1   51.516  50  37.735
   385     1   1   54.548  50  37.735
   386     1   1   43.936  52.453  38.672
   387     1   1   45.452  54.906  39.609
   388     1   1   46.968  57.359  40.546
   389     1   1   48.484  59.812  41.483
   390     1   1   41.483  51.516  40.188
   391     1   1   40.546  53.032  42.641
   392     1   1   39.609  54.548  45.094
   393     1   1   38.672  56.064  47.547
   394     1   1   41.483  48.484  40.188
   395     1   1   40.546  46.968  42.641
   396     1   1   39.609  45.452  45.094
   397     1   1   38.672  43.936  47.547
   398     1   1   43.936  47.547  38.672
   399     1   1   45.452  45.094  39.609
   400     1   1   46.968  42.641  40.546
   401     1   1   48.484  40.188  41.483
   402     1   1   47.547  38.672  43.936
   403     1   1   45.094  39.609  45.452
   404     1   1   42.641  40.546  46.968
   405     1   1   40.188  41.483  48.484
   406     1   1   50  37.735  45.452
   407     1   1   50  37.735  48.484
   408     1   1   50  37.735  51.516
   409     1   1   50  37.735  54.548
   410     1   1   52.453  38.672  43.936
   411     1   1   54.906  39.609  45.452
   412     1   1   57.359  40.546  46.968
   413     1   1   59.812  41.483  48.484
   414     1   1   51.516  40.188  41.483
   415     1   1   53.032  42.641  40.546
   416     1   1   54.548  45.094  39.609
   417     1   1   56.064  47.547  38.672
   418     1   1   37.735  45.452  50
   419     1   1   37.735  48.484  50
   420     1   1   37.735  51.516  50
   421     1   1   37.735  54.548  50
   422     1   1   38.672  43.936  52.453
   423     1   1   39.609  45.452  54.906
   424     1   1   40.546  46.968  57.359
   425     1   1   41.483  48.484  59.812
   426     1   1   40.188  41.483  51.516
   427     1   1   42.641  40.546  53.032
   428     1   1   45.094  39.609  54.548
   429     1   1   47.547  38.672  56.064
   430     1   1   38.672  56.064  52.453
   431     1   1   39.609  54.548  54.906
   432     1   1   40.546  53.032  57.359
   433     1   1   41.483  51.516  59.812
   434     1   1   43.936  47.547  61.328
   435     1   1   45.452  45.094  60.391
   436     1   1   46.968  42.641  59.454
   437     1   1   48.484  40.188  58.517
   438     1   1   52.453  38.672  56.064
   439     1   1   54.906  39.609  54.548
   440     1   1   57.359  40.546  53.032
   441     1   1   59.812  41.483  51.516
   442     1   1   53.032  47.547  61.328
   443     1   1   51.516  45.094  60.391
   444     1   1   50  42.641  59.454
   445     1   1   50  47.547  61.328
   446     1   1   48.484  45.094  60.391
   447     1   1   46.968  47.547  61.328
   448     1   1   57.001  46.031  58.875
   449     1   1   57.938  44.515  56.422
   450     1   1   58.875  42.999  53.969
   451     1   1   55.485  43.578  57.938
   452     1   1   56.422  42.062  55.485
   453     1   1   53.969  41.125  57.001
   454     1   1   59.454  50  57.359
   455     1   1   60.391  51.516  54.906
   456     1   1   61.328  53.032  52.453
   457     1   1   60.391  48.484  54.906
   458     1   1   61.328  50  52.453
   459     1   1   61.328  46.968  52.453
   460     1   1   57.001  53.969  58.875
   461     1   1   55.485  56.422  57.938
   462     1   1   53.969  58.875  57.001
   463     1   1   57.938  55.485  56.422
   464     1   1   56.422  57.938  55.485
   465     1   1   58.875  57.001  53.969
   466     1   1   53.032  52.453  61.328
   467     1   1   50  52.453  61.328
   468     1   1   46.968  52.453  61.328
   469     1   1   51.516  54.906  60.391
   470     1   1   48.484  54.906  60.391
   471     1   1   50  57.359  59.454
   472     1   1   52.453  61.328  53.032
   473     1   1   52.453  61.328  50
   474     1   1   52.453  61.328  46.968
   475     1   1   54.906  60.391  51.516
   476     1   1   54.906  60.391  48.484
   477     1   1   57.359  59.454  50
   478     1   1   47.547  61.328  53.032
   479     1   1   45.094  60.391  51.516
   480     1   1   42.641  59.454  50
   481     1   1   47.547  61.328  50
   482     1   1   45.094  60.391  48.484
   483     1   1   47.547  61.328  46.968
   484     1   1   46.031  58.875  57.001
   485     1   1   44.515  56.422  57.938
   486     1   1   42.999  53.969  58.875
   487     1   1   43.578  57.938  55.485
   488     1   1   42.062  55.485  56.422
   489     1   1   41.125  57.001  53.969
   490     1   1   61.328  53.032  47.547
   491     1   1   60.391  51.516  45.094
   492     1   1   59.454  50  42.641
   493     1   1   61.328  50  47.547
   494     1   1   60.391  48.484  45.094
   495     1   1   61.328  46.968  47.547
   496     1   1   58.875  57.001  46.031
   497     1   1   56.422  57.938  44.515
   498     1   1   53.969  58.875  42.999
   499     1   1   57.938  55.485  43.578
   500     1   1   55.485  56.422  42.062
   501     1   1   57.001  53.969  41.125
   502     1   1   46.968  52.453  38.672
   503     1   1   48.484  54.906  39.609
   504     1   1   50  57.359  40.546
   505     1   1   50  52.453  38.672
   506     1   1   51.516  54.906  39.609
   507     1   1   53.032  52.453  38.672
   508     1   1   42.999  53.969  41.125
   509     1   1   42.062  55.485  43.578
   510     1   1   41.125  57.001  46.031
   511     1   1   44.515  56.422  42.062
   512     1   1   43.578  57.938  44.515
   513     1   1   46.031  58.875  42.999
   514     1   1   40.546  50  42.641
   515     1   1   39.609  48.484  45.094
   516     1   1   38.672  46.968  47.547
   517     1   1   39.609  51.516  45.094
   518     1   1   38.672  50  47.547
   519     1   1   38.672  53.032  47.547
   520     1   1   42.999  46.031  41.125
   521     1   1   44.515  43.578  42.062
   522     1   1   46.031  41.125  42.999
   523     1   1   42.062  44.515  43.578
   524     1   1   43.578  42.062  44.515
   525     1   1   41.125  42.999  46.031
   526     1   1   46.968  47.547  38.672
   527     1   1   50  47.547  38.672
   528     1   1   53.032  47.547  38.672
   529     1   1   48.484  45.094  39.609
   530     1   1   51.516  45.094  39.609
   531     1   1   50  42.641  40.546
   532     1   1   47.547  38.672  46.968
   533     1   1   47.547  38.672  50
   534     1   1   47.547  38.672  53.032
   535     1   1   45.094  39.609  48.484
   536     1   1   45.094  39.609  51.516
   537     1   1   42.641  40.546  50
   538     1   1   52.453  38.672  46.968
   539     1   1   54.906  39.609  48.484
   540     1   1   57.359  40.546  50
   541     1   1   52.453  38.672  50
   542     1   1   54.906  39.609  51.516
   543     1   1   52.453  38.672  53.032
   544     1   1   53.969  41.125  42.999
   545     1   1   55.485  43.578  42.062
   546     1   1   57.001  46.031  41.125
   547     1   1   56.422  42.062  44.515
   548     1   1   57.938  44.515  43.578
   549     1   1   58.875  42.999  46.031
   550     1   1   38.672  46.968  52.453
   551     1   1   39.609  48.484  54.906
   552     1   1   40.546  50  57.359
   553     1   1   38.672  50  52.453
   554     1   1   39.609  51.516  54.906
   555     1   1   38.672  53.032  52.453
   556     1   1   41.125  42.999  53.969
   557     1   1   43.578  42.062  55.485
   558     1   1   46.031  41.125  57.001
   559     1   1   42.062  44.515  56.422
   560     1   1   44.515  43.578  57.938
   561     1   1   42.999  46.031  58.875
   562     2   2  56.555  56.555  78.532
   563     2   3  57.561  57.561  79.657
   564     2   3  57.21  57.21  81.105
   565     2   3  58.057  58.057  82.047
   566     2   3  57.707  57.707  83.495
   567     2   3  58.554  58.554  84.437
   568     2   3  58.203  58.203  85.885
   569     2   3  59.05  59.05  86.827
   570     2   4  58.699  58.699  88.276
   571     3   2  59.631  59.631  76.73
   572     3   3  60.749  60.749  77.619
   573     3   3  60.562  60.562  79.127
   574     3   3  61.503  61.503  79.87
   575     3   3  61.317  61.317  81.378
   576     3   3  62.258  62.258  82.121
   577     3   3  62.072  62.072  83.629
   578     3   3  63.012  63.012  84.372
   579     3   4  62.826  62.826  85.88
   580     4   2  62.469  62.469  74.271
   581     4   3  63.671  63.671  74.901
   582     4   3  63.654  63.654  76.432
   583     4   3  64.666  64.666  76.958
   584     4   3  64.649  64.649  78.488
   585     4   3  65.66  65.66  79.014
   586     4   3  65.643  65.643  80.544
   587     4   3  66.654  66.654  81.07
   588     4   4  66.637  66.637  82.6
   589     5   2  65  65  71.213
   590     5   3  66.257  66.257  71.57
   591     5   3  66.41  66.41  73.086
   592     5   3  67.467  67.467  73.381
   593     5   3  67.62  67.62  74.897
   594     5   3  68.677  68.677  75.192
   595     5   3  68.829  68.829  76.707
   596     5   3  69.886  69.886  77.003
   597     5   4  70.038  70.038  78.518
   598     6   2  67.162  67.162  67.634
   599     6   3  68.443  68.443  67.708
   600     6   3  68.762  68.762  69.171
   601     6   3  69.838  69.838  69.229
   602     6   3  70.157  70.157  70.692
   603     6   3  71.233  71.233  70.75
   604     6   3  71.551  71.551  72.213
   605     6   3  72.628  72.628  72.271
   606     6   4  72.946  72.946  73.734
   607     7   2  68.901  68.901  63.62
   608     7   3  70.175  70.175  63.41
   609     7   3  70.651  70.651  64.784
   610     7   3  71.721  71.721  64.603
   611     7   3  72.197  72.197  65.978
   612     7   3  73.267  73.267  65.797
   613     7   3  73.743  73.743  67.172
   614     7   3  74.813  74.813  66.991
   615     7   4  75.289  75.289  68.365
   616     8   2  70.175  70.175  59.271
   617     8   3  71.41  71.41  58.781
   618     8   3  72.032  72.032  60.034
   619     8   3  73.069  73.069  59.618
   620     8   3  73.691  73.691  60.871
   621     8   3  74.728  74.728  60.455
   622     8   3  75.35  75.35  61.708
   623     8   3  76.387  76.387  61.292
   624     8   4  77.009  77.009  62.545
   625     9   2  70.952  70.952  54.693
   626     9   3  72.118  72.118  53.937
   627     9   3  72.871  72.871  55.036
   628     9   3  73.849  73.849  54.396
   629     9   3  74.602  74.602  55.495
   630     9   3  75.58  75.58  54.856
   631     9   3  76.333  76.333  55.955
   632     9   3  77.311  77.311  55.316
   633     9   4  78.064  78.064  56.415
   634     10   2  71.213  71.213  50
   635     10   3  72.281  72.281  48.995
   636     10   3  73.146  73.146  49.914
   637     10   3  74.042  74.042  49.066
   638     10   3  74.907  74.907  49.985
   639     10   3  75.802  75.802  49.137
   640     10   3  76.668  76.668  50.056
   641     10   3  77.563  77.563  49.208
   642     10   4  78.429  78.429  50.127
   643     11   2  70.952  70.952  45.307
   644     11   3  71.895  71.895  44.078
   645     11   3  72.852  72.852  44.794
   646     11   3  73.642  73.642  43.759
   647     11   3  74.599  74.599  44.475
   648     11   3  75.389  75.389  43.439
   649     11   3  76.346  76.346  44.156
   650     11   3  77.136  77.136  43.12
   651     11   4  78.093  78.093  43.836
   652     12   2  70.175  70.175  40.729
   653     12   3  70.971  70.971  39.307
   654     12   3  71.995  71.995  39.803
   655     12   3  72.661  72.661  38.605
   656     12   3  73.685  73.685  39.101
   657     12   3  74.351  74.351  37.903
   658     12   3  75.375  75.375  38.399
   659     12   3  76.041  76.041  37.201
   660     12   4  77.065  77.065  37.697
   661     13   2  68.901  68.901  36.38
   662     13   3  69.53  69.53  34.799
   663     13   3  70.596  70.596  35.062
   664     13   3  71.121  71.121  33.732
   665     13   3  72.188  72.188  33.995
   666     13   3  72.713  72.713  32.665
   667     13   3  73.779  73.779  32.928
   668     13   3  74.305  74.305  31.598
   669     13   4  75.371  75.371  31.861
   670     14   2  67.162  67.162  32.366
   671     14   3  67.608  67.608  30.666
   672     14   3  68.69  68.69  30.69
   673     14   3  69.062  69.062  29.26
   674     14   3  70.144  70.144  29.284
   675     14   3  70.516  70.516  27.854
   676     14   3  71.598  71.598  27.878
   677     14   3  71.97  71.97  26.447
   678     14   4  73.052  73.052  26.471
   679     15   2  65  65  28.787
   680     15   3  65.252  65.252  27.008
   681     15   3  66.324  66.324  26.793
   682     15   3  66.533  66.533  25.298
   683     15   3  67.605  67.605  25.082
   684     15   3  67.814  67.814  23.587
   685     15   3  68.885  68.885  23.372
   686     15   3  69.094  69.094  21.877
   687     15   4  70.166  70.165  21.661
   688     16   2  62.469  62.469  25.729
   689     16   3  62.521  62.521  23.917
   690     16   3  63.556  63.556  23.467
   691     16   3  63.597  63.597  21.944
   692     16   3  64.631  64.631  21.494
   693     16   3  64.673  64.673  19.972
   694     16   3  65.707  65.707  19.522
   695     16   3  65.748  65.748  17.999
   696     16   4  66.783  66.783  17.549
   697     17   2  59.631  59.631  23.27
   698     17   3  59.482  59.482  21.468
   699     17   3  60.454  60.454  20.795
   700     17   3  60.326  60.326  19.282
   701     17   3  61.298  61.298  18.608
   702     17   3  61.17  61.17  17.095
   703     17   3  62.142  62.142  16.422
   704     17   3  62.014  62.014  14.909
   705     17   4  62.986  62.986  14.236
   706     18   2  56.555  56.555  21.468
   707     18   3  56.209  56.209  19.722
   708     18   3  57.095  57.095  18.842
   709     18   3  56.801  56.801  17.375
   710     18   3  57.687  57.687  16.495
   711     18   3  57.393  57.393  15.029
   712     18   3  58.278  58.278  14.149
   713     18   3  57.985  57.985  12.683
   714     18   4  58.87  58.87  11.803
   715     19   2  50  59.271  78.532
   716     19   3  50  60.693  79.657
   717     19   3  50  60.197  81.105
   718     19   3  50  61.395  82.047
   719     19   3  50  60.899  83.495
   720     19   3  50  62.097  84.437
   721     19   3  50  61.601  85.885
   722     19   3  50  62.799  86.827
   723     19   4  50  62.303  88.276
   724     20   2  50  63.62  76.73
   725     20   3  50  65.201  77.619
   726     20   3  50  64.938  79.127
   727     20   3  50  66.268  79.87
   728     20   3  50  66.005  81.378
   729     20   3  50  67.335  82.121
   730     20   3  50  67.072  83.629