Gold Nanoparticle - Thiol System

        4097   atoms
        3400   bonds
        6528   angles
        8568   dihedrals

        4   atom types
        3   bond types
        7   angle types
        7   dihedral types

  0.00  100        xlo xhi
  0.00  100        ylo yhi
  0.00  100        zlo zhi

Masses

 1 196.967
 2 31.972
 3 12
 4 1.008

Atoms

   1     1   1   50  50  50
   2     1   1   51.516  50  52.453
   3     1   1   48.484  50  52.453
   4     1   1   50  47.547  51.516
   5     1   1   52.453  48.484  50
   6     1   1   52.453  51.516  50
   7     1   1   50  52.453  51.516
   8     1   1   48.484  50  47.547
   9     1   1   51.516  50  47.547
   10     1   1   50  52.453  48.484
   11     1   1   47.547  51.516  50
   12     1   1   47.547  48.484  50
   13     1   1   50  47.547  48.484
   14     1   1   53.032  50  54.906
   15     1   1   46.968  50  54.906
   16     1   1   50  45.094  53.032
   17     1   1   54.906  46.968  50
   18     1   1   54.906  53.032  50
   19     1   1   50  54.906  53.032
   20     1   1   46.968  50  45.094
   21     1   1   53.032  50  45.094
   22     1   1   50  54.906  46.968
   23     1   1   45.094  53.032  50
   24     1   1   45.094  46.968  50
   25     1   1   50  45.094  46.968
   26     1   1   50  50  54.906
   27     1   1   51.516  47.547  53.969
   28     1   1   53.969  48.484  52.453
   29     1   1   53.969  51.516  52.453
   30     1   1   51.516  52.453  53.969
   31     1   1   52.453  53.969  51.516
   32     1   1   50  54.906  50
   33     1   1   47.547  53.969  51.516
   34     1   1   48.484  52.453  53.969
   35     1   1   54.906  50  50
   36     1   1   53.969  51.516  47.547
   37     1   1   52.453  53.969  48.484
   38     1   1   53.969  48.484  47.547
   39     1   1   51.516  52.453  46.031
   40     1   1   47.547  53.969  48.484
   41     1   1   50  50  45.094
   42     1   1   48.484  52.453  46.031
   43     1   1   46.031  51.516  47.547
   44     1   1   46.031  48.484  47.547
   45     1   1   48.484  47.547  46.031
   46     1   1   47.547  46.031  48.484
   47     1   1   50  45.094  50
   48     1   1   52.453  46.031  48.484
   49     1   1   51.516  47.547  46.031
   50     1   1   45.094  50  50
   51     1   1   46.031  48.484  52.453
   52     1   1   47.547  46.031  51.516
   53     1   1   46.031  51.516  52.453
   54     1   1   48.484  47.547  53.969
   55     1   1   52.453  46.031  51.516
   56     1   1   54.548  50  57.359
   57     1   1   45.452  50  57.359
   58     1   1   50  42.641  54.548
   59     1   1   57.359  45.452  50
   60     1   1   57.359  54.548  50
   61     1   1   50  57.359  54.548
   62     1   1   45.452  50  42.641
   63     1   1   54.548  50  42.641
   64     1   1   50  57.359  45.452
   65     1   1   42.641  54.548  50
   66     1   1   42.641  45.452  50
   67     1   1   50  42.641  45.452
   68     1   1   51.516  50  57.359
   69     1   1   48.484  50  57.359
   70     1   1   53.032  47.547  56.422
   71     1   1   51.516  45.094  55.485
   72     1   1   55.485  48.484  54.906
   73     1   1   56.422  46.968  52.453
   74     1   1   55.485  51.516  54.906
   75     1   1   56.422  53.032  52.453
   76     1   1   53.032  52.453  56.422
   77     1   1   51.516  54.906  55.485
   78     1   1   52.453  56.422  53.032
   79     1   1   54.906  55.485  51.516
   80     1   1   50  57.359  51.516
   81     1   1   50  57.359  48.484
   82     1   1   47.547  56.422  53.032
   83     1   1   45.094  55.485  51.516
   84     1   1   48.484  54.906  55.485
   85     1   1   46.968  52.453  56.422
   86     1   1   57.359  51.516  50
   87     1   1   57.359  48.484  50
   88     1   1   56.422  53.032  47.547
   89     1   1   55.485  51.516  45.094
   90     1   1   54.906  55.485  48.484
   91     1   1   52.453  56.422  46.968
   92     1   1   56.422  46.968  47.547
   93     1   1   55.485  48.484  45.094
   94     1   1   53.032  52.453  43.578
   95     1   1   51.516  54.906  44.515
   96     1   1   47.547  56.422  46.968
   97     1   1   45.094  55.485  48.484
   98     1   1   48.484  50  42.641
   99     1   1   51.516  50  42.641
   100     1   1   46.968  52.453  43.578
   101     1   1   48.484  54.906  44.515
   102     1   1   44.515  51.516  45.094
   103     1   1   43.578  53.032  47.547
   104     1   1   44.515  48.484  45.094
   105     1   1   43.578  46.968  47.547
   106     1   1   46.968  47.547  43.578
   107     1   1   48.484  45.094  44.515
   108     1   1   47.547  43.578  46.968
   109     1   1   45.094  44.515  48.484
   110     1   1   50  42.641  48.484
   111     1   1   50  42.641  51.516
   112     1   1   52.453  43.578  46.968
   113     1   1   54.906  44.515  48.484
   114     1   1   51.516  45.094  44.515
   115     1   1   53.032  47.547  43.578
   116     1   1   42.641  48.484  50
   117     1   1   42.641  51.516  50
   118     1   1   43.578  46.968  52.453
   119     1   1   44.515  48.484  54.906
   120     1   1   45.094  44.515  51.516
   121     1   1   47.547  43.578  53.032
   122     1   1   43.578  53.032  52.453
   123     1   1   44.515  51.516  54.906
   124     1   1   46.968  47.547  56.422
   125     1   1   48.484  45.094  55.485
   126     1   1   52.453  43.578  53.032
   127     1   1   54.906  44.515  51.516
   128     1   1   50  47.547  56.422
   129     1   1   53.969  46.031  53.969
   130     1   1   56.422  50  52.453
   131     1   1   53.969  53.969  53.969
   132     1   1   50  52.453  56.422
   133     1   1   52.453  56.422  50
   134     1   1   47.547  56.422  50
   135     1   1   46.031  53.969  53.969
   136     1   1   56.422  50  47.547
   137     1   1   53.969  53.969  46.031
   138     1   1   50  52.453  43.578
   139     1   1   46.031  53.969  46.031
   140     1   1   43.578  50  47.547
   141     1   1   46.031  46.031  46.031
   142     1   1   50  47.547  43.578
   143     1   1   47.547  43.578  50
   144     1   1   52.453  43.578  50
   145     1   1   53.969  46.031  46.031
   146     1   1   43.578  50  52.453
   147     1   1   46.031  46.031  53.969
   148     1   1   56.064  50  59.812
   149     1   1   43.936  50  59.812
   150     1   1   50  40.188  56.064
   151     1   1   59.812  43.936  50
   152     1   1   59.812  56.064  50
   153     1   1   50  59.812  56.064
   154     1   1   43.936  50  40.188
   155     1   1   56.064  50  40.188
   156     1   1   50  59.812  43.936
   157     1   1   40.188  56.064  50
   158     1   1   40.188  43.936  50
   159     1   1   50  40.188  43.936
   160     1   1   53.032  50  59.812
   161     1   1   50  50  59.812
   162     1   1   46.968  50  59.812
   163     1   1   54.548  47.547  58.875
   164     1   1   53.032  45.094  57.938
   165     1   1   51.516  42.641  57.001
   166     1   1   57.001  48.484  57.359
   167     1   1   57.938  46.968  54.906
   168     1   1   58.875  45.452  52.453
   169     1   1   57.001  51.516  57.359
   170     1   1   57.938  53.032  54.906
   171     1   1   58.875  54.548  52.453
   172     1   1   54.548  52.453  58.875
   173     1   1   53.032  54.906  57.938
   174     1   1   51.516  57.359  57.001
   175     1   1   52.453  58.875  54.548
   176     1   1   54.906  57.938  53.032
   177     1   1   57.359  57.001  51.516
   178     1   1   50  59.812  53.032
   179     1   1   50  59.812  50
   180     1   1   50  59.812  46.968
   181     1   1   47.547  58.875  54.548
   182     1   1   45.094  57.938  53.032
   183     1   1   42.641  57.001  51.516
   184     1   1   48.484  57.359  57.001
   185     1   1   46.968  54.906  57.938
   186     1   1   45.452  52.453  58.875
   187     1   1   59.812  53.032  50
   188     1   1   59.812  50  50
   189     1   1   59.812  46.968  50
   190     1   1   58.875  54.548  47.547
   191     1   1   57.938  53.032  45.094
   192     1   1   57.001  51.516  42.641
   193     1   1   57.359  57.001  48.484
   194     1   1   54.906  57.938  46.968
   195     1   1   52.453  58.875  45.452
   196     1   1   58.875  45.452  47.547
   197     1   1   57.938  46.968  45.094
   198     1   1   57.001  48.484  42.641
   199     1   1   54.548  52.453  41.125
   200     1   1   53.032  54.906  42.062
   201     1   1   51.516  57.359  42.999
   202     1   1   47.547  58.875  45.452
   203     1   1   45.094  57.938  46.968
   204     1   1   42.641  57.001  48.484
   205     1   1   46.968  50  40.188
   206     1   1   50  50  40.188
   207     1   1   53.032  50  40.188
   208     1   1   45.452  52.453  41.125
   209     1   1   46.968  54.906  42.062
   210     1   1   48.484  57.359  42.999
   211     1   1   42.999  51.516  42.641
   212     1   1   42.062  53.032  45.094
   213     1   1   41.125  54.548  47.547
   214     1   1   42.999  48.484  42.641
   215     1   1   42.062  46.968  45.094
   216     1   1   41.125  45.452  47.547
   217     1   1   45.452  47.547  41.125
   218     1   1   46.968  45.094  42.062
   219     1   1   48.484  42.641  42.999
   220     1   1   47.547  41.125  45.452
   221     1   1   45.094  42.062  46.968
   222     1   1   42.641  42.999  48.484
   223     1   1   50  40.188  46.968
   224     1   1   50  40.188  50
   225     1   1   50  40.188  53.032
   226     1   1   52.453  41.125  45.452
   227     1   1   54.906  42.062  46.968
   228     1   1   57.359  42.999  48.484
   229     1   1   51.516  42.641  42.999
   230     1   1   53.032  45.094  42.062
   231     1   1   54.548  47.547  41.125
   232     1   1   40.188  46.968  50
   233     1   1   40.188  50  50
   234     1   1   40.188  53.032  50
   235     1   1   41.125  45.452  52.453
   236     1   1   42.062  46.968  54.906
   237     1   1   42.999  48.484  57.359
   238     1   1   42.641  42.999  51.516
   239     1   1   45.094  42.062  53.032
   240     1   1   47.547  41.125  54.548
   241     1   1   41.125  54.548  52.453
   242     1   1   42.062  53.032  54.906
   243     1   1   42.999  51.516  57.359
   244     1   1   45.452  47.547  58.875
   245     1   1   46.968  45.094  57.938
   246     1   1   48.484  42.641  57.001
   247     1   1   52.453  41.125  54.548
   248     1   1   54.906  42.062  53.032
   249     1   1   57.359  42.999  51.516
   250     1   1   51.516  47.547  58.875
   251     1   1   50  45.094  57.938
   252     1   1   48.484  47.547  58.875
   253     1   1   55.485  46.031  56.422
   254     1   1   56.422  44.515  53.969
   255     1   1   53.969  43.578  55.485
   256     1   1   57.938  50  54.906
   257     1   1   58.875  51.516  52.453
   258     1   1   58.875  48.484  52.453
   259     1   1   55.485  53.969  56.422
   260     1   1   53.969  56.422  55.485
   261     1   1   56.422  55.485  53.969
   262     1   1   51.516  52.453  58.875
   263     1   1   48.484  52.453  58.875
   264     1   1   50  54.906  57.938
   265     1   1   52.453  58.875  51.516
   266     1   1   52.453  58.875  48.484
   267     1   1   54.906  57.938  50
   268     1   1   47.547  58.875  51.516
   269     1   1   45.094  57.938  50
   270     1   1   47.547  58.875  48.484
   271     1   1   46.031  56.422  55.485
   272     1   1   44.515  53.969  56.422
   273     1   1   43.578  55.485  53.969
   274     1   1   58.875  51.516  47.547
   275     1   1   57.938  50  45.094
   276     1   1   58.875  48.484  47.547
   277     1   1   56.422  55.485  46.031
   278     1   1   53.969  56.422  44.515
   279     1   1   55.485  53.969  43.578
   280     1   1   48.484  52.453  41.125
   281     1   1   50  54.906  42.062
   282     1   1   51.516  52.453  41.125
   283     1   1   44.515  53.969  43.578
   284     1   1   43.578  55.485  46.031
   285     1   1   46.031  56.422  44.515
   286     1   1   42.062  50  45.094
   287     1   1   41.125  48.484  47.547
   288     1   1   41.125  51.516  47.547
   289     1   1   44.515  46.031  43.578
   290     1   1   46.031  43.578  44.515
   291     1   1   43.578  44.515  46.031
   292     1   1   48.484  47.547  41.125
   293     1   1   51.516  47.547  41.125
   294     1   1   50  45.094  42.062
   295     1   1   47.547  41.125  48.484
   296     1   1   47.547  41.125  51.516
   297     1   1   45.094  42.062  50
   298     1   1   52.453  41.125  48.484
   299     1   1   54.906  42.062  50
   300     1   1   52.453  41.125  51.516
   301     1   1   53.969  43.578  44.515
   302     1   1   55.485  46.031  43.578
   303     1   1   56.422  44.515  46.031
   304     1   1   41.125  48.484  52.453
   305     1   1   42.062  50  54.906
   306     1   1   41.125  51.516  52.453
   307     1   1   43.578  44.515  53.969
   308     1   1   46.031  43.578  55.485
   309     1   1   44.515  46.031  56.422
   310     1   1   57.58  50  62.265
   311     1   1   42.42  50  62.265
   312     1   1   50  37.735  57.58
   313     1   1   62.265  42.42  50
   314     1   1   62.265  57.58  50
   315     1   1   50  62.265  57.58
   316     1   1   42.42  50  37.735
   317     1   1   57.58  50  37.735
   318     1   1   50  62.265  42.42
   319     1   1   37.735  57.58  50
   320     1   1   37.735  42.42  50
   321     1   1   50  37.735  42.42
   322     1   1   54.548  50  62.265
   323     1   1   51.516  50  62.265
   324     1   1   48.484  50  62.265
   325     1   1   45.452  50  62.265
   326     1   1   56.064  47.547  61.328
   327     1   1   54.548  45.094  60.391
   328     1   1   53.032  42.641  59.454
   329     1   1   51.516  40.188  58.517
   330     1   1   58.517  48.484  59.812
   331     1   1   59.454  46.968  57.359
   332     1   1   60.391  45.452  54.906
   333     1   1   61.328  43.936  52.453
   334     1   1   58.517  51.516  59.812
   335     1   1   59.454  53.032  57.359
   336     1   1   60.391  54.548  54.906
   337     1   1   61.328  56.064  52.453
   338     1   1   56.064  52.453  61.328
   339     1   1   54.548  54.906  60.391
   340     1   1   53.032  57.359  59.454
   341     1   1   51.516  59.812  58.517
   342     1   1   52.453  61.328  56.064
   343     1   1   54.906  60.391  54.548
   344     1   1   57.359  59.454  53.032
   345     1   1   59.812  58.517  51.516
   346     1   1   50  62.265  54.548
   347     1   1   50  62.265  51.516
   348     1   1   50  62.265  48.484
   349     1   1   50  62.265  45.452
   350     1   1   47.547  61.328  56.064
   351     1   1   45.094  60.391  54.548
   352     1   1   42.641  59.454  53.032
   353     1   1   40.188  58.517  51.516
   354     1   1   48.484  59.812  58.517
   355     1   1   46.968  57.359  59.454
   356     1   1   45.452  54.906  60.391
   357     1   1   43.936  52.453  61.328
   358     1   1   62.265  54.548  50
   359     1   1   62.265  51.516  50
   360     1   1   62.265  48.484  50
   361     1   1   62.265  45.452  50
   362     1   1   61.328  56.064  47.547
   363     1   1   60.391  54.548  45.094
   364     1   1   59.454  53.032  42.641
   365     1   1   58.517  51.516  40.188
   366     1   1   59.812  58.517  48.484
   367     1   1   57.359  59.454  46.968
   368     1   1   54.906  60.391  45.452
   369     1   1   52.453  61.328  43.936
   370     1   1   61.328  43.936  47.547
   371     1   1   60.391  45.452  45.094
   372     1   1   59.454  46.968  42.641
   373     1   1   58.517  48.484  40.188
   374     1   1   56.064  52.453  38.672
   375     1   1   54.548  54.906  39.609
   376     1   1   53.032  57.359  40.546
   377     1   1   51.516  59.812  41.483
   378     1   1   47.547  61.328  43.936
   379     1   1   45.094  60.391  45.452
   380     1   1   42.641  59.454  46.968
   381     1   1   40.188  58.517  48.484
   382     1   1   45.452  50  37.735
   383     1   1   48.484  50  37.735
   384     1   1   51.516  50  37.735
   385     1   1   54.548  50  37.735
   386     1   1   43.936  52.453  38.672
   387     1   1   45.452  54.906  39.609
   388     1   1   46.968  57.359  40.546
   389     1   1   48.484  59.812  41.483
   390     1   1   41.483  51.516  40.188
   391     1   1   40.546  53.032  42.641
   392     1   1   39.609  54.548  45.094
   393     1   1   38.672  56.064  47.547
   394     1   1   41.483  48.484  40.188
   395     1   1   40.546  46.968  42.641
   396     1   1   39.609  45.452  45.094
   397     1   1   38.672  43.936  47.547
   398     1   1   43.936  47.547  38.672
   399     1   1   45.452  45.094  39.609
   400     1   1   46.968  42.641  40.546
   401     1   1   48.484  40.188  41.483
   402     1   1   47.547  38.672  43.936
   403     1   1   45.094  39.609  45.452
   404     1   1   42.641  40.546  46.968
   405     1   1   40.188  41.483  48.484
   406     1   1   50  37.735  45.452
   407     1   1   50  37.735  48.484
   408     1   1   50  37.735  51.516
   409     1   1   50  37.735  54.548
   410     1   1   52.453  38.672  43.936
   411     1   1   54.906  39.609  45.452
   412     1   1   57.359  40.546  46.968
   413     1   1   59.812  41.483  48.484
   414     1   1   51.516  40.188  41.483
   415     1   1   53.032  42.641  40.546
   416     1   1   54.548  45.094  39.609
   417     1   1   56.064  47.547  38.672
   418     1   1   37.735  45.452  50
   419     1   1   37.735  48.484  50
   420     1   1   37.735  51.516  50
   421     1   1   37.735  54.548  50
   422     1   1   38.672  43.936  52.453
   423     1   1   39.609  45.452  54.906
   424     1   1   40.546  46.968  57.359
   425     1   1   41.483  48.484  59.812
   426     1   1   40.188  41.483  51.516
   427     1   1   42.641  40.546  53.032
   428     1   1   45.094  39.609  54.548
   429     1   1   47.547  38.672  56.064
   430     1   1   38.672  56.064  52.453
   431     1   1   39.609  54.548  54.906
   432     1   1   40.546  53.032  57.359
   433     1   1   41.483  51.516  59.812
   434     1   1   43.936  47.547  61.328
   435     1   1   45.452  45.094  60.391
   436     1   1   46.968  42.641  59.454
   437     1   1   48.484  40.188  58.517
   438     1   1   52.453  38.672  56.064
   439     1   1   54.906  39.609  54.548
   440     1   1   57.359  40.546  53.032
   441     1   1   59.812  41.483  51.516
   442     1   1   53.032  47.547  61.328
   443     1   1   51.516  45.094  60.391
   444     1   1   50  42.641  59.454
   445     1   1   50  47.547  61.328
   446     1   1   48.484  45.094  60.391
   447     1   1   46.968  47.547  61.328
   448     1   1   57.001  46.031  58.875
   449     1   1   57.938  44.515  56.422
   450     1   1   58.875  42.999  53.969
   451     1   1   55.485  43.578  57.938
   452     1   1   56.422  42.062  55.485
   453     1   1   53.969  41.125  57.001
   454     1   1   59.454  50  57.359
   455     1   1   60.391  51.516  54.906
   456     1   1   61.328  53.032  52.453
   457     1   1   60.391  48.484  54.906
   458     1   1   61.328  50  52.453
   459     1   1   61.328  46.968  52.453
   460     1   1   57.001  53.969  58.875
   461     1   1   55.485  56.422  57.938
   462     1   1   53.969  58.875  57.001
   463     1   1   57.938  55.485  56.422
   464     1   1   56.422  57.938  55.485
   465     1   1   58.875  57.001  53.969
   466     1   1   53.032  52.453  61.328
   467     1   1   50  52.453  61.328
   468     1   1   46.968  52.453  61.328
   469     1   1   51.516  54.906  60.391
   470     1   1   48.484  54.906  60.391
   471     1   1   50  57.359  59.454
   472     1   1   52.453  61.328  53.032
   473     1   1   52.453  61.328  50
   474     1   1   52.453  61.328  46.968
   475     1   1   54.906  60.391  51.516
   476     1   1   54.906  60.391  48.484
   477     1   1   57.359  59.454  50
   478     1   1   47.547  61.328  53.032
   479     1   1   45.094  60.391  51.516
   480     1   1   42.641  59.454  50
   481     1   1   47.547  61.328  50
   482     1   1   45.094  60.391  48.484
   483     1   1   47.547  61.328  46.968
   484     1   1   46.031  58.875  57.001
   485     1   1   44.515  56.422  57.938
   486     1   1   42.999  53.969  58.875
   487     1   1   43.578  57.938  55.485
   488     1   1   42.062  55.485  56.422
   489     1   1   41.125  57.001  53.969
   490     1   1   61.328  53.032  47.547
   491     1   1   60.391  51.516  45.094
   492     1   1   59.454  50  42.641
   493     1   1   61.328  50  47.547
   494     1   1   60.391  48.484  45.094
   495     1   1   61.328  46.968  47.547
   496     1   1   58.875  57.001  46.031
   497     1   1   56.422  57.938  44.515
   498     1   1   53.969  58.875  42.999
   499     1   1   57.938  55.485  43.578
   500     1   1   55.485  56.422  42.062
   501     1   1   57.001  53.969  41.125
   502     1   1   46.968  52.453  38.672
   503     1   1   48.484  54.906  39.609
   504     1   1   50  57.359  40.546
   505     1   1   50  52.453  38.672
   506     1   1   51.516  54.906  39.609
   507     1   1   53.032  52.453  38.672
   508     1   1   42.999  53.969  41.125
   509     1   1   42.062  55.485  43.578
   510     1   1   41.125  57.001  46.031
   511     1   1   44.515  56.422  42.062
   512     1   1   43.578  57.938  44.515
   513     1   1   46.031  58.875  42.999
   514     1   1   40.546  50  42.641
   515     1   1   39.609  48.484  45.094
   516     1   1   38.672  46.968  47.547
   517     1   1   39.609  51.516  45.094
   518     1   1   38.672  50  47.547
   519     1   1   38.672  53.032  47.547
   520     1   1   42.999  46.031  41.125
   521     1   1   44.515  43.578  42.062
   522     1   1   46.031  41.125  42.999
   523     1   1   42.062  44.515  43.578
   524     1   1   43.578  42.062  44.515
   525     1   1   41.125  42.999  46.031
   526     1   1   46.968  47.547  38.672
   527     1   1   50  47.547  38.672
   528     1   1   53.032  47.547  38.672
   529     1   1   48.484  45.094  39.609
   530     1   1   51.516  45.094  39.609
   531     1   1   50  42.641  40.546
   532     1   1   47.547  38.672  46.968
   533     1   1   47.547  38.672  50
   534     1   1   47.547  38.672  53.032
   535     1   1   45.094  39.609  48.484
   536     1   1   45.094  39.609  51.516
   537     1   1   42.641  40.546  50
   538     1   1   52.453  38.672  46.968
   539     1   1   54.906  39.609  48.484
   540     1   1   57.359  40.546  50
   541     1   1   52.453  38.672  50
   542     1   1   54.906  39.609  51.516
   543     1   1   52.453  38.672  53.032
   544     1   1   53.969  41.125  42.999
   545     1   1   55.485  43.578  42.062
   546     1   1   57.001  46.031  41.125
   547     1   1   56.422  42.062  44.515
   548     1   1   57.938  44.515  43.578
   549     1   1   58.875  42.999  46.031
   550     1   1   38.672  46.968  52.453
   551     1   1   39.609  48.484  54.906
   552     1   1   40.546  50  57.359
   553     1   1   38.672  50  52.453
   554     1   1   39.609  51.516  54.906
   555     1   1   38.672  53.032  52.453
   556     1   1   41.125  42.999  53.969
   557     1   1   43.578  42.062  55.485
   558     1   1   46.031  41.125  57.001
   559     1   1   42.062  44.515  56.422
   560     1   1   44.515  43.578  57.938
   561     1   1   42.999  46.031  58.875
   562     2   2  56.555  56.555  78.532
   563     2   3  57.561  57.561  79.657
   564     2   3  57.21  57.21  81.105
   565     2   3  58.057  58.057  82.047
   566     2   3  57.707  57.707  83.495
   567     2   3  58.554  58.554  84.437
   568     2   3  58.203  58.203  85.885
   569     2   3  59.05  59.05  86.827
   570     2   3  58.699  58.699  88.276
   571     2   4  58.617  57.359  79.48
   572     2   4  57.356  58.615  79.47
   573     2   4  57.413  56.154  81.283
   574     2   4  56.154  57.413  81.283
   575     2   4  59.114  57.855  81.87
   576     2   4  57.853  59.111  81.861
   577     2   4  57.909  56.651  83.673
   578     2   4  56.651  57.909  83.673
   579     2   4  59.61  58.351  84.26
   580     2   4  58.349  59.608  84.251
   581     2   4  58.406  57.147  86.063
   582     2   4  57.147  58.406  86.063
   583     2   4  60.106  58.848  86.65
   584     2   4  58.845  60.104  86.641
   585     2   4  58.902  57.643  88.453
   586     2   4  57.643  58.902  88.453
   587     2   4  59.304  59.304  88.952
   588     3   2  59.631  59.631  76.73
   589     3   3  60.749  60.749  77.619
   590     3   3  60.562  60.562  79.127
   591     3   3  61.503  61.503  79.87
   592     3   3  61.317  61.317  81.378
   593     3   3  62.258  62.258  82.121
   594     3   3  62.072  62.072  83.629
   595     3   3  63.012  63.012  84.372
   596     3   3  62.826  62.826  85.88
   597     3   4  61.78  60.521  77.35
   598     3   4  60.518  61.777  77.341
   599     3   4  60.79  59.531  79.397
   600     3   4  59.531  60.79  79.397
   601     3   4  62.535  61.276  79.601
   602     3   4  61.273  62.531  79.592
   603     3   4  61.544  60.286  81.648
   604     3   4  60.286  61.544  81.648
   605     3   4  63.289  62.03  81.852
   606     3   4  62.027  63.286  81.843
   607     3   4  62.299  61.04  83.898
   608     3   4  61.04  62.299  83.898
   609     3   4  64.044  62.785  84.102
   610     3   4  62.782  64.041  84.093
   611     3   4  63.054  61.795  86.149
   612     3   4  61.795  63.054  86.149
   613     3   4  63.498  63.498  86.415
   614     4   2  62.469  62.469  74.271
   615     4   3  63.671  63.671  74.901
   616     4   3  63.654  63.654  76.432
   617     4   3  64.666  64.666  76.958
   618     4   3  64.649  64.649  78.488
   619     4   3  65.66  65.66  79.014
   620     4   3  65.643  65.643  80.544
   621     4   3  66.654  66.654  81.07
   622     4   3  66.637  66.637  82.6
   623     4   4  64.668  63.409  74.546
   624     4   4  63.405  64.664  74.538
   625     4   4  63.916  62.658  76.787
   626     4   4  62.658  63.916  76.787
   627     4   4  65.662  64.404  76.602
   628     4   4  64.399  65.658  76.594
   629     4   4  64.911  63.652  78.843
   630     4   4  63.652  64.911  78.843
   631     4   4  66.657  65.398  78.659
   632     4   4  65.394  66.652  78.651
   633     4   4  65.905  64.646  80.899
   634     4   4  64.646  65.905  80.899
   635     4   4  67.651  66.392  80.715
   636     4   4  66.388  67.647  80.707
   637     4   4  66.899  65.641  82.956
   638     4   4  65.641  66.899  82.956
   639     4   4  67.36  67.36  82.98
   640     5   2  65  65  71.213
   641     5   3  66.257  66.257  71.57
   642     5   3  66.41  66.41  73.086
   643     5   3  67.467  67.467  73.381
   644     5   3  67.62  67.62  74.897
   645     5   3  68.677  68.677  75.192
   646     5   3  68.829  68.829  76.707
   647     5   3  69.886  69.886  77.003
   648     5   3  70.038  70.038  78.518
   649     5   4  67.21  65.952  71.138
   650     5   4  65.947  67.205  71.131
   651     5   4  66.716  65.457  73.518
   652     5   4  65.457  66.716  73.518
   653     5   4  68.42  67.161  72.949
   654     5   4  67.156  68.415  72.942
   655     5   4  67.925  66.667  75.329
   656     5   4  66.667  67.925  75.329
   657     5   4  69.629  68.371  74.76
   658     5   4  68.366  69.624  74.753
   659     5   4  69.135  67.876  77.139
   660     5   4  67.876  69.135  77.139
   661     5   4  70.839  69.58  76.571
   662     5   4  69.575  70.834  76.564
   663     5   4  70.344  69.086  78.95
   664     5   4  69.086  70.344  78.95
   665     5   4  70.794  70.794  78.733
   666     6   2  67.162  67.162  67.634
   667     6   3  68.443  68.443  67.708
   668     6   3  68.762  68.762  69.171
   669     6   3  69.838  69.838  69.229
   670     6   3  70.157  70.157  70.692
   671     6   3  71.233  71.233  70.75
   672     6   3  71.551  71.551  72.213
   673     6   3  72.628  72.628  72.271
   674     6   3  72.946  72.946  73.734
   675     6   4  69.344  68.086  67.21
   676     6   4  68.08  69.339  67.204
   677     6   4  69.119  67.861  69.669
   678     6   4  67.861  69.119  69.669
   679     6   4  70.739  69.481  68.731
   680     6   4  69.475  70.734  68.725
   681     6   4  70.514  69.255  71.19
   682     6   4  69.255  70.514  71.19
   683     6   4  72.134  70.876  70.252
   684     6   4  70.87  72.129  70.246
   685     6   4  71.909  70.65  72.711
   686     6   4  70.65  71.909  72.711
   687     6   4  73.529  72.271  71.773
   688     6   4  72.265  73.523  71.767
   689     6   4  73.304  72.045  74.232
   690     6   4  72.045  73.304  74.232
   691     6   4  73.717  73.717  73.779
   692     7   2  68.901  68.901  63.62
   693     7   3  70.175  70.175  63.41
   694     7   3  70.651  70.651  64.784
   695     7   3  71.721  71.721  64.603
   696     7   3  72.197  72.197  65.978
   697     7   3  73.267  73.267  65.797
   698     7   3  73.743  73.743  67.172
   699     7   3  74.813  74.813  66.991
   700     7   3  75.289  75.289  68.365
   701     7   4  71.018  69.759  62.858
   702     7   4  69.753  71.011  62.853
   703     7   4  71.067  69.809  65.337
   704     7   4  69.809  71.067  65.337
   705     7   4  72.564  71.305  64.051
   706     7   4  71.299  72.557  64.047
   707     7   4  72.613  71.355  66.53
   708     7   4  71.355  72.613  66.53
   709     7   4  74.11  72.851  65.245
   710     7   4  72.845  74.103  65.24
   711     7   4  74.159  72.901  67.724
   712     7   4  72.901  74.159  67.724
   713     7   4  75.656  74.397  66.439
   714     7   4  74.391  75.649  66.434
   715     7   4  75.705  74.447  68.918
   716     7   4  74.447  75.705  68.918
   717     7   4  76.055  76.055  68.239
   718     8   2  70.175  70.175  59.271
   719     8   3  71.41  71.41  58.781
   720     8   3  72.032  72.032  60.034
   721     8   3  73.069  73.069  59.618
   722     8   3  73.691  73.691  60.871
   723     8   3  74.728  74.728  60.455
   724     8   3  75.35  75.35  61.708
   725     8   3  76.387  76.387  61.292
   726     8   3  77.009  77.009  62.545
   727     8   4  72.189  70.93  58.189
   728     8   4  70.924  72.182  58.186
   729     8   4  72.512  71.253  60.626
   730     8   4  71.253  72.512  60.626
   731     8   4  73.848  72.589  59.026